
     Program PWSCF v.7.0 starts on 26Jan2022 at 16:10:59 

     This program is part of the open-source Quantum ESPRESSO suite
     for quantum simulation of materials; please cite
         "P. Giannozzi et al., J. Phys.:Condens. Matter 21 395502 (2009);
         "P. Giannozzi et al., J. Phys.:Condens. Matter 29 465901 (2017);
         "P. Giannozzi et al., J. Chem. Phys. 152 154105 (2020);
          URL http://www.quantum-espresso.org", 
     in publications or presentations arising from this work. More details at
     http://www.quantum-espresso.org/quote

     Parallel version (MPI), running on     6 processors

     MPI processes distributed on     1 nodes
     R & G space division:  proc/nbgrp/npool/nimage =       6
     82722 MiB available memory on the printing compute node when the environment starts
 
     Waiting for input...
     Reading input from standard input

     Current dimensions of program PWSCF are:
     Max number of different atomic species (ntypx) = 10
     Max number of k-points (npk) =  40000
     Max angular momentum in pseudopotentials (lmaxx) =  4

     Atomic positions and unit cell read from directory:
     ./tmp/cu.save/
     Atomic positions from file used, from input discarded
 

     Subspace diagonalization in iterative solution of the eigenvalue problem:
     a serial algorithm will be used

 
     Parallelization info
     --------------------
     sticks:   dense  smooth     PW     G-vecs:    dense   smooth      PW
     Min         534     534    142                63842    63842    8716
     Max         535     535    143                63851    63851    8721
     Sum        3209    3209    853               383067   383067   52303
 
     Using Slab Decomposition
 


     bravais-lattice index     =            6
     lattice parameter (alat)  =      14.2189  a.u.
     unit-cell volume          =    8023.2585 (a.u.)^3
     number of atoms/cell      =           40
     number of atomic types    =            3
     number of electrons       =       694.00
     number of Kohn-Sham states=          500
     kinetic-energy cutoff     =      50.0000  Ry
     charge density cutoff     =     200.0000  Ry
     Exchange-correlation= PBE
                           (   1   4   3   4   0   0   0)

     celldm(1)=  14.218910  celldm(2)=   0.000000  celldm(3)=   2.790949
     celldm(4)=   0.000000  celldm(5)=   0.000000  celldm(6)=   0.000000

     crystal axes: (cart. coord. in units of alat)
               a(1) = (   1.000000   0.000000   0.000000 )  
               a(2) = (   0.000000   1.000000   0.000000 )  
               a(3) = (   0.000000   0.000000   2.790949 )  

     reciprocal axes: (cart. coord. in units 2 pi/alat)
               b(1) = (  1.000000  0.000000  0.000000 )  
               b(2) = (  0.000000  1.000000  0.000000 )  
               b(3) = (  0.000000  0.000000  0.358301 )  


     PseudoPot. # 1 for Cu read from file:
     /home/chris/Work/QE/PP/ONCV_TM/ONCVPSP-master/abinit/Cu_ONCV_PBE_sr.upf
     MD5 check sum: a81617321994e202ce49920f32934a3a
     Pseudo is Norm-conserving + core correction, Zval = 19.0
     Generated using ONCVPSP code by D. R. Hamann
     Using radial grid of 1492 points,  6 beta functions with: 
                l(1) =   0
                l(2) =   0
                l(3) =   1
                l(4) =   1
                l(5) =   2
                l(6) =   2

     PseudoPot. # 2 for C  read from file:
     /home/chris/Work/QE/PP/ONCV_TM/ONCVPSP-master/abinit/C_ONCV_PBE_sr.upf
     MD5 check sum: be7deea5c8a9eeec940f0cd39a542f08
     Pseudo is Norm-conserving + core correction, Zval =  4.0
     Generated using ONCVPSP code by D. R. Hamann
     Using radial grid of 1248 points,  4 beta functions with: 
                l(1) =   0
                l(2) =   0
                l(3) =   1
                l(4) =   1

     PseudoPot. # 3 for H  read from file:
     /home/chris/Work/QE/PP/ONCV_TM/ONCVPSP-master/abinit/H_ONCV_PBE_sr.upf
     MD5 check sum: 31ee981bebb029a36324f200b357dac4
     Pseudo is Norm-conserving, Zval =  1.0
     Generated using ONCVPSP code by D. R. Hamann
     Using radial grid of 1166 points,  3 beta functions with: 
                l(1) =   0
                l(2) =   0
                l(3) =   1

     atomic species   valence    mass     pseudopotential
        Cu            19.00    63.54600     Cu( 1.00)
        C              4.00    12.00100     C ( 1.00)
        H              1.00     1.00000     H ( 1.00)

     No symmetry found



   Cartesian axes

     site n.     atom                  positions (alat units)
         1           Cu  tau(   1) = (   0.1666667   0.1666667   0.2358364  )
         2           Cu  tau(   2) = (   0.1666667   0.5000000   0.2358364  )
         3           Cu  tau(   3) = (   0.1666667   0.8333333   0.2358364  )
         4           Cu  tau(   4) = (   0.5000000   0.1666667   0.2358364  )
         5           Cu  tau(   5) = (   0.5000000   0.5000000   0.2358364  )
         6           Cu  tau(   6) = (   0.5000000   0.8333333   0.2358364  )
         7           Cu  tau(   7) = (   0.8333333   0.1666667   0.2358364  )
         8           Cu  tau(   8) = (   0.8333333   0.5000000   0.2358364  )
         9           Cu  tau(   9) = (   0.8333333   0.8333333   0.2358364  )
        10           Cu  tau(  10) = (   0.0000000   0.0000000   0.4714242  )
        11           Cu  tau(  11) = (   0.0000000   0.3333333   0.4714242  )
        12           Cu  tau(  12) = (   0.0000000   0.6666667   0.4714242  )
        13           Cu  tau(  13) = (   0.3333333   0.0000000   0.4714242  )
        14           Cu  tau(  14) = (   0.3333333   0.3333333   0.4714242  )
        15           Cu  tau(  15) = (   0.3333333   0.6666667   0.4714242  )
        16           Cu  tau(  16) = (   0.6666667   0.0000000   0.4714242  )
        17           Cu  tau(  17) = (   0.6666667   0.3333333   0.4714242  )
        18           Cu  tau(  18) = (   0.6666667   0.6666667   0.4714242  )
        19           Cu  tau(  19) = (   0.1617832   0.1623621   0.7110663  )
        20           Cu  tau(  20) = (   0.1680372   0.4964522   0.7139677  )
        21           Cu  tau(  21) = (   0.1734572   0.8271004   0.7159227  )
        22           Cu  tau(  22) = (   0.4959858   0.1686228   0.7144710  )
        23           Cu  tau(  23) = (   0.4996094   0.4999904   0.7067716  )
        24           Cu  tau(  24) = (   0.5039623   0.8314891   0.7142632  )
        25           Cu  tau(  25) = (   0.8264561   0.1728860   0.7157696  )
        26           Cu  tau(  26) = (   0.8310530   0.5035398   0.7139759  )
        27           Cu  tau(  27) = (   0.8380877   0.8376464   0.7112863  )
        28           Cu  tau(  28) = (   0.0003740   0.0002631   0.9509683  )
        29           Cu  tau(  29) = (   0.9846285   0.3336580   0.9488453  )
        30           Cu  tau(  30) = (   0.0137070   0.6665637   0.9486443  )
        31           Cu  tau(  31) = (   0.3338146   0.9870380   0.9487477  )
        32           Cu  tau(  32) = (   0.3143598   0.3168106   0.9539751  )
        33           Cu  tau(  33) = (   0.3481639   0.6523333   0.9691671  )
        34           Cu  tau(  34) = (   0.6668776   0.0130186   0.9488247  )
        35           Cu  tau(  35) = (   0.6500105   0.3475991   0.9697067  )
        36           Cu  tau(  36) = (   0.6840335   0.6829854   0.9537302  )
        37           C   tau(  37) = (   0.4341726   0.4362844   1.1515639  )
        38           C   tau(  38) = (   0.5635774   0.5642651   1.1514900  )
        39           H   tau(  39) = (   0.3810800   0.3840574   1.2774165  )
        40           H   tau(  40) = (   0.6163217   0.6172566   1.2771874  )

     number of k points=     5  Gaussian smearing, width (Ry)=  0.0050
                       cart. coord. in units 2pi/alat
        k(    1) = (   0.0000000   0.0000000   0.0000000), wk =   0.2222222
        k(    2) = (   0.0000000   0.3333333   0.0000000), wk =   0.4444444
        k(    3) = (   0.3333333   0.0000000   0.0000000), wk =   0.4444444
        k(    4) = (   0.3333333   0.3333333   0.0000000), wk =   0.4444444
        k(    5) = (   0.3333333  -0.3333333   0.0000000), wk =   0.4444444

     Dense  grid:   383067 G-vectors     FFT dimensions: (  72,  72, 180)

     Estimated max dynamical RAM per process >     464.33 MB

     Estimated total dynamical RAM >       2.72 GB

     Check: negative core charge=   -0.001277

     The potential is recalculated from file :
     ./tmp/cu.save/charge-density

     Starting wfcs are  370 randomized atomic wfcs +  130 random wfcs

     Band Structure Calculation
     Davidson diagonalization with overlap

     ethr =  1.44E-12,  avg # of iterations = 39.6

     total cpu time spent up to now is      420.9 secs

     End of band structure calculation

          k = 0.0000 0.0000 0.0000 ( 47805 PWs)   bands (ev):

  -117.3026-117.3018-117.2995-117.2631-117.2624-117.2545-117.2534-117.2397
  -117.2369-117.2359-117.2328-117.2316-117.2305-117.2289-117.2284-117.2269
  -117.2256-117.2190-117.2174-117.1490-117.1441-117.1369-116.7222-116.7206
  -116.7162-116.7139-116.7066-116.6984-116.6969-116.6963-116.6945-116.6935
  -116.6930-116.6922-116.6903-116.6827 -72.1442 -72.1400 -72.0263 -72.0182
   -72.0107 -72.0093 -72.0031 -71.9960 -71.9938 -71.9879 -71.9846 -71.9770
   -71.9736 -71.9704 -71.9693 -71.9676 -71.9608 -71.9600 -71.9584 -71.9574
   -71.9558 -71.9527 -71.9489 -71.9465 -71.9442 -71.9409 -71.9402 -71.9396
   -71.9385 -71.9314 -71.9292 -71.9278 -71.9217 -71.9203 -71.9174 -71.9133
   -71.9119 -71.9100 -71.9088 -71.9077 -71.9040 -71.8989 -71.8963 -71.8951
   -71.8866 -71.8854 -71.8830 -71.8756 -71.8748 -71.8714 -71.8617 -71.8585
   -71.8578 -71.8474 -71.8363 -71.8357 -71.8249 -71.8243 -71.8171 -71.8112
   -71.8087 -71.8049 -71.8003 -71.7864 -71.7172 -71.6978 -71.4527 -71.4520
   -71.4482 -71.4439 -71.4355 -71.4347 -71.4323 -71.4298 -71.4285 -71.4192
   -71.4052 -71.3981 -71.3972 -71.3908 -71.3887 -71.3876 -71.3829 -71.3817
   -71.3774 -71.3755 -71.3733 -71.3728 -71.3685 -71.3657 -71.3642 -71.3599
   -71.3588 -71.3507 -71.3477 -71.3467 -71.3429 -71.3385 -71.3326 -71.3319
   -71.3307 -71.3302 -71.3238 -71.3212 -71.3205 -71.3085 -71.3075 -71.2674
   -12.2752  -6.7474  -6.4034  -4.9942  -4.5326  -3.9663  -3.9589  -3.9342
    -3.9274  -3.0842  -3.0592  -2.9598  -2.9312  -2.8691  -2.6251  -2.5126
    -2.5006  -2.4862  -2.4218  -2.4076  -2.2845  -2.1780  -2.1610  -2.0468
    -1.9997  -1.9878  -1.9850  -1.9546  -1.9508  -1.9167  -1.8862  -1.8846
    -1.8749  -1.8726  -1.8597  -1.8181  -1.7789  -1.7714  -1.7625  -1.7265
    -1.7165  -1.6971  -1.6842  -1.6800  -1.6673  -1.5161  -1.5000  -1.3816
    -1.2714  -1.2623  -1.2360  -1.2313  -1.2138  -1.1861  -1.1620  -1.1508
    -1.1494  -1.1001  -1.0818  -1.0784  -1.0461  -0.9665  -0.9494  -0.9399
    -0.9395  -0.9155  -0.8881  -0.8718  -0.8658  -0.8624  -0.8533  -0.8173
    -0.8121  -0.7265  -0.6896  -0.6864  -0.6315  -0.5915  -0.5697  -0.5559
    -0.5399  -0.5364  -0.5334  -0.5190  -0.5177  -0.5076  -0.4903  -0.4787
    -0.4473  -0.4401  -0.4345  -0.4223  -0.4137  -0.4108  -0.3863  -0.3829
    -0.3767  -0.3580  -0.3373  -0.3226  -0.3173  -0.3105  -0.3037  -0.2696
    -0.0923  -0.0472   0.0137   0.0650   0.0736   0.0988   0.1018   0.1183
     0.1314   0.1360   0.1502   0.1858   0.1955   0.2099   0.2115   0.2421
     0.2547   0.2677   0.3020   0.3097   0.3124   0.3427   0.3594   0.3744
     0.4023   0.4097   0.4335   0.4356   0.4524   0.4598   0.5195   0.5323
     0.5509   0.5535   0.5602   0.5624   0.5805   0.6026   0.6314   0.6410
     0.6440   0.6558   0.6644   0.6659   0.6777   0.6922   0.6976   0.7181
     0.7259   0.7577   0.7661   0.7848   0.7890   0.8104   0.8198   0.8275
     0.8286   0.8366   0.8462   0.8535   0.8674   0.8713   0.8782   0.8938
     0.9066   0.9073   0.9125   0.9195   0.9732   0.9735   0.9873   0.9993
     1.0065   1.0339   1.0357   1.0646   1.0657   1.0863   1.1098   1.1411
     1.1443   1.1561   1.1695   1.1920   1.2014   1.2287   1.2378   1.2534
     1.2587   1.2625   1.2995   1.3246   1.3891   1.4884   1.6310   1.6664
     2.0361   2.1707   2.2601   2.5654   2.6629   2.8426   2.9836   3.2186
     3.3936   3.8712   4.0189   4.6566   4.6650   4.9391   4.9724   5.0284
     5.1215   5.1806   5.5291   5.9147   6.0141   6.2467   6.7447   6.7735
     6.8398   6.8521   6.9719   6.9898   7.0095   7.0374   7.0628   7.4374
     7.4997   7.5134   7.5279   7.5670   7.7377   7.7441   7.7990   7.8351
     7.9074   7.9219   7.9452   7.9709   8.0719   8.3673   8.3752   8.6572
     8.6720   8.9001   8.9554   9.0661   9.1999   9.3284   9.4199   9.4348
     9.4622   9.5316   9.6150   9.6512   9.8692   9.9054   9.9404   9.9882
    10.0335  10.1253  10.1293  10.1493  10.1722  10.2578  10.2647  10.3110
    10.3785  10.4124  10.5410  10.5452  10.6089  10.9142  11.1212  11.1830
    11.2283  11.2598  11.2715  11.2903  11.3750  11.4087  11.8870  11.9429
    11.9610  11.9744  12.1926  12.2498  12.2619  12.2937  12.3517  12.4054
    12.4418  12.4652  12.5052  12.5165  12.5430  12.5895  12.7514  12.8272
    12.8485  12.8937  13.0208  13.0364  13.1112  13.2503  13.4451  13.6405
    13.7509  13.7578  13.8386  13.9532  13.9590  13.9634  14.1876  14.4284
    14.6098  14.6533  14.7273  14.7542  14.8183  14.8236  14.8540  15.0322
    15.1612  15.2461  15.2864  15.3350  15.3642  15.3966  15.5055  15.5512
    15.5954  15.6127  15.6299  15.6822  15.7064  15.7464  15.7606  15.8328
    15.9590  15.9807  16.0176  16.1432  16.2045  16.2504  16.2948  16.3124
    16.3559  16.3929  16.7072  16.7297

          k = 0.0000 0.3333 0.0000 ( 47890 PWs)   bands (ev):

  -117.3034-117.3022-117.3001-117.2639-117.2626-117.2549-117.2540-117.2399
  -117.2381-117.2350-117.2336-117.2320-117.2312-117.2300-117.2287-117.2278
  -117.2267-117.2199-117.2180-117.1496-117.1448-117.1375-116.7231-116.7206
  -116.7161-116.7155-116.7070-116.6990-116.6971-116.6959-116.6954-116.6946
  -116.6935-116.6931-116.6913-116.6834 -72.1542 -72.1468 -72.0640 -72.0348
   -72.0250 -72.0131 -72.0125 -72.0033 -72.0007 -71.9935 -71.9917 -71.9889
   -71.9868 -71.9841 -71.9786 -71.9775 -71.9756 -71.9724 -71.9708 -71.9662
   -71.9638 -71.9625 -71.9598 -71.9576 -71.9560 -71.9523 -71.9490 -71.9457
   -71.9445 -71.9409 -71.9383 -71.9356 -71.9342 -71.9312 -71.9282 -71.9278
   -71.9263 -71.9215 -71.9174 -71.9140 -71.9108 -71.9097 -71.9051 -71.9011
   -71.9001 -71.8916 -71.8889 -71.8846 -71.8825 -71.8809 -71.8715 -71.8662
   -71.8641 -71.8530 -71.8516 -71.8447 -71.8389 -71.8326 -71.8288 -71.8239
   -71.8189 -71.8125 -71.8081 -71.8014 -71.7255 -71.7092 -71.4894 -71.4764
   -71.4613 -71.4532 -71.4485 -71.4441 -71.4377 -71.4348 -71.4251 -71.4207
   -71.4180 -71.4152 -71.4137 -71.4108 -71.4069 -71.4015 -71.3995 -71.3964
   -71.3912 -71.3884 -71.3832 -71.3824 -71.3789 -71.3738 -71.3695 -71.3670
   -71.3647 -71.3616 -71.3566 -71.3539 -71.3506 -71.3468 -71.3416 -71.3411
   -71.3379 -71.3352 -71.3303 -71.3291 -71.3282 -71.3206 -71.3106 -71.2901
   -12.2751  -6.7570  -6.0977  -5.2495  -4.8841  -4.3358  -3.7166  -3.7120
    -3.6633  -3.1177  -3.0436  -2.9303  -2.8842  -2.7784  -2.7147  -2.6834
    -2.5114  -2.4529  -2.3911  -2.3754  -2.2660  -2.2168  -2.1990  -2.1775
    -2.1516  -2.1424  -2.1200  -2.0634  -2.0331  -2.0112  -1.9927  -1.9880
    -1.9544  -1.8482  -1.7989  -1.7381  -1.7108  -1.7048  -1.6952  -1.6802
    -1.6407  -1.6061  -1.5709  -1.5566  -1.5280  -1.4942  -1.4820  -1.4305
    -1.4060  -1.3759  -1.3276  -1.2838  -1.2425  -1.2309  -1.2172  -1.1922
    -1.1416  -1.1133  -1.0850  -1.0807  -1.0632  -1.0447  -1.0190  -1.0047
    -0.9990  -0.9925  -0.9591  -0.9441  -0.9410  -0.9006  -0.8935  -0.8543
    -0.8429  -0.7713  -0.7340  -0.7147  -0.6965  -0.6935  -0.6870  -0.6381
    -0.6030  -0.5814  -0.5590  -0.5503  -0.5116  -0.4980  -0.4955  -0.4907
    -0.4757  -0.4639  -0.4418  -0.4258  -0.4057  -0.3986  -0.3858  -0.3649
    -0.3409  -0.3202  -0.2836  -0.2662  -0.2389  -0.2235  -0.2067  -0.1911
    -0.1759  -0.1460  -0.0829  -0.0374  -0.0307   0.0010   0.0300   0.0402
     0.0570   0.0733   0.0840   0.1238   0.1321   0.1488   0.1538   0.1658
     0.1862   0.2000   0.2148   0.2264   0.2328   0.2447   0.2537   0.2718
     0.2974   0.3215   0.3615   0.3714   0.3957   0.3994   0.4100   0.4304
     0.4586   0.4738   0.4802   0.4922   0.5252   0.5808   0.5890   0.6078
     0.6267   0.6466   0.6580   0.6838   0.6900   0.7111   0.7193   0.7462
     0.7502   0.7738   0.7780   0.7885   0.8004   0.8068   0.8202   0.8264
     0.8447   0.8585   0.8669   0.8703   0.8774   0.8972   0.8985   0.9084
     0.9194   0.9286   0.9419   0.9428   0.9548   0.9570   0.9749   0.9760
     0.9908   1.0083   1.0234   1.0766   1.0997   1.1358   1.1487   1.1529
     1.1749   1.1927   1.2042   1.2208   1.2283   1.2466   1.2497   1.2762
     1.2809   1.3045   1.3452   1.5152   1.6856   1.8359   1.8534   1.9631
     2.2440   2.5660   2.6563   2.9307   2.9636   3.1074   3.3054   3.5646
     3.6528   3.7180   4.0453   4.1285   4.5993   4.8120   4.9699   5.0215
     5.2873   5.4260   5.4817   5.5541   5.7045   5.8068   5.9661   6.1054
     6.2201   6.3374   6.4438   6.6970   6.8489   6.9697   7.0909   7.1718
     7.1874   7.3058   7.3867   7.4223   7.6113   7.7466   7.7764   7.8300
     7.9103   7.9615   7.9915   8.0698   8.1326   8.2167   8.2923   8.3308
     8.5878   8.6753   8.8110   8.8745   8.9121   9.0014   9.0437   9.1143
     9.1981   9.4357   9.5682   9.6327   9.6949   9.7305   9.8068   9.8943
    10.0541  10.1165  10.2655  10.3285  10.3972  10.4564  10.4889  10.5437
    10.7354  10.7791  10.8717  10.9652  11.1471  11.1683  11.3209  11.3713
    11.4873  11.5796  11.6382  11.8026  11.8750  11.9410  12.0352  12.1559
    12.1900  12.2741  12.3203  12.3591  12.4359  12.4552  12.4749  12.5087
    12.6034  12.6528  12.6773  12.9415  12.9939  13.1107  13.1632  13.3510
    13.4931  13.5839  13.5913  13.6428  13.6744  13.7015  13.8085  13.9027
    13.9784  13.9883  14.0186  14.1146  14.1519  14.1964  14.2998  14.3328
    14.3781  14.4402  14.5293  14.5699  14.5888  14.6141  14.7281  14.7342
    14.7866  14.8158  14.8400  14.8643  14.9629  15.0167  15.0381  15.0836
    15.1727  15.1839  15.2490  15.2993  15.3928  15.4677  15.6760  15.7470
    15.8250  15.8526  15.9354  16.0149  16.0503  16.1173  16.1673  16.2240
    16.3130  16.4441  16.4710  16.4919

          k = 0.3333 0.0000 0.0000 ( 47890 PWs)   bands (ev):

  -117.3033-117.3023-117.3001-117.2639-117.2626-117.2549-117.2540-117.2402
  -117.2377-117.2350-117.2332-117.2323-117.2312-117.2304-117.2289-117.2276
  -117.2266-117.2199-117.2180-117.1496-117.1448-117.1375-116.7231-116.7206
  -116.7161-116.7155-116.7070-116.6981-116.6973-116.6969-116.6951-116.6944
  -116.6939-116.6932-116.6910-116.6834 -72.1538 -72.1477 -72.0643 -72.0355
   -72.0249 -72.0138 -72.0127 -72.0036 -72.0010 -71.9930 -71.9911 -71.9886
   -71.9865 -71.9841 -71.9790 -71.9772 -71.9748 -71.9723 -71.9710 -71.9666
   -71.9643 -71.9625 -71.9601 -71.9587 -71.9567 -71.9517 -71.9486 -71.9457
   -71.9443 -71.9404 -71.9385 -71.9346 -71.9338 -71.9307 -71.9292 -71.9268
   -71.9262 -71.9227 -71.9173 -71.9140 -71.9098 -71.9091 -71.9050 -71.9028
   -71.9001 -71.8921 -71.8900 -71.8858 -71.8829 -71.8813 -71.8714 -71.8663
   -71.8649 -71.8521 -71.8502 -71.8453 -71.8385 -71.8324 -71.8284 -71.8243
   -71.8182 -71.8141 -71.8068 -71.8007 -71.7250 -71.7092 -71.4891 -71.4769
   -71.4613 -71.4532 -71.4482 -71.4448 -71.4383 -71.4353 -71.4242 -71.4212
   -71.4183 -71.4155 -71.4138 -71.4107 -71.4067 -71.4036 -71.4003 -71.3954
   -71.3915 -71.3883 -71.3842 -71.3804 -71.3783 -71.3733 -71.3693 -71.3675
   -71.3645 -71.3604 -71.3561 -71.3542 -71.3505 -71.3466 -71.3426 -71.3405
   -71.3379 -71.3352 -71.3305 -71.3285 -71.3282 -71.3198 -71.3090 -71.2906
   -12.2750  -6.7574  -6.0974  -5.2496  -4.8836  -4.3354  -3.7155  -3.7107
    -3.6639  -3.1169  -3.0434  -2.9318  -2.8840  -2.7788  -2.7145  -2.6823
    -2.5108  -2.4526  -2.3913  -2.3748  -2.2653  -2.2162  -2.1978  -2.1774
    -2.1520  -2.1423  -2.1186  -2.0634  -2.0321  -2.0126  -1.9928  -1.9881
    -1.9545  -1.8493  -1.8011  -1.7357  -1.7103  -1.7054  -1.6926  -1.6790
    -1.6353  -1.6108  -1.5714  -1.5570  -1.5261  -1.4933  -1.4843  -1.4331
    -1.4078  -1.3720  -1.3284  -1.2849  -1.2491  -1.2318  -1.2174  -1.1929
    -1.1363  -1.1137  -1.0838  -1.0810  -1.0621  -1.0439  -1.0201  -1.0050
    -0.9988  -0.9928  -0.9580  -0.9452  -0.9409  -0.8986  -0.8899  -0.8534
    -0.8393  -0.7687  -0.7331  -0.7110  -0.6998  -0.6976  -0.6844  -0.6432
    -0.6021  -0.5844  -0.5594  -0.5503  -0.5110  -0.5008  -0.4936  -0.4902
    -0.4759  -0.4677  -0.4431  -0.4272  -0.4079  -0.3992  -0.3887  -0.3662
    -0.3440  -0.3217  -0.2842  -0.2697  -0.2374  -0.2229  -0.2057  -0.1950
    -0.1780  -0.1473  -0.0816  -0.0390  -0.0307   0.0002   0.0324   0.0398
     0.0566   0.0734   0.0857   0.1153   0.1332   0.1490   0.1540   0.1649
     0.1847   0.2000   0.2144   0.2245   0.2303   0.2461   0.2539   0.2727
     0.3015   0.3194   0.3636   0.3710   0.3988   0.4010   0.4124   0.4328
     0.4603   0.4741   0.4813   0.4940   0.5240   0.5815   0.5863   0.6077
     0.6258   0.6465   0.6595   0.6810   0.6902   0.7081   0.7197   0.7463
     0.7492   0.7734   0.7776   0.7882   0.8007   0.8082   0.8200   0.8255
     0.8442   0.8591   0.8670   0.8700   0.8768   0.8972   0.8987   0.9093
     0.9197   0.9289   0.9424   0.9440   0.9545   0.9578   0.9749   0.9771
     0.9903   1.0080   1.0265   1.0794   1.1023   1.1381   1.1494   1.1547
     1.1739   1.1951   1.2043   1.2220   1.2280   1.2469   1.2488   1.2761
     1.2798   1.3054   1.3470   1.5178   1.6832   1.8343   1.8528   1.9643
     2.2444   2.5646   2.6552   2.9329   2.9614   3.1070   3.3042   3.5659
     3.6531   3.7192   4.0437   4.1251   4.5970   4.8077   4.9742   5.0212
     5.2879   5.4256   5.4817   5.5562   5.7039   5.8069   5.9659   6.1034
     6.2223   6.3380   6.4460   6.6975   6.8493   6.9699   7.0932   7.1743
     7.1869   7.3063   7.3838   7.4239   7.6105   7.7459   7.7761   7.8296
     7.9093   7.9619   7.9924   8.0705   8.1332   8.2175   8.2954   8.3315
     8.5848   8.6761   8.8105   8.8733   8.9126   9.0012   9.0433   9.1158
     9.1978   9.4352   9.5661   9.6327   9.6923   9.7322   9.8059   9.8955
    10.0581  10.1159  10.2631  10.3278  10.3969  10.4565  10.4882  10.5456
    10.7380  10.7786  10.8673  10.9641  11.1472  11.1682  11.3178  11.3731
    11.4864  11.5800  11.6375  11.8023  11.8760  11.9407  12.0355  12.1555
    12.1907  12.2717  12.3196  12.3587  12.4349  12.4551  12.4760  12.5087
    12.6039  12.6531  12.6710  12.9429  12.9943  13.1082  13.1653  13.3519
    13.4956  13.5811  13.5901  13.6435  13.6736  13.7021  13.8086  13.9019
    13.9766  13.9909  14.0182  14.1172  14.1507  14.1966  14.3031  14.3382
    14.3772  14.4407  14.5287  14.5700  14.5912  14.6154  14.7303  14.7349
    14.7874  14.8173  14.8409  14.8681  14.9610  15.0156  15.0356  15.0794
    15.1769  15.1844  15.2504  15.2986  15.3919  15.4676  15.6750  15.7448
    15.8271  15.8485  15.9329  16.0130  16.0470  16.1199  16.1674  16.2235
    16.3140  16.4446  16.4723  16.4906

          k = 0.3333 0.3333 0.0000 ( 47918 PWs)   bands (ev):

  -117.3034-117.3025-117.3003-117.2642-117.2627-117.2549-117.2543-117.2413
  -117.2377-117.2351-117.2335-117.2321-117.2315-117.2306-117.2288-117.2276
  -117.2265-117.2202-117.2179-117.1496-117.1451-117.1378-116.7235-116.7207
  -116.7164-116.7156-116.7070-116.6986-116.6975-116.6967-116.6958-116.6948
  -116.6939-116.6929-116.6911-116.6835 -72.1518 -72.1462 -72.0446 -72.0342
   -72.0240 -72.0229 -72.0172 -72.0124 -72.0098 -72.0054 -71.9965 -71.9940
   -71.9903 -71.9828 -71.9812 -71.9796 -71.9721 -71.9701 -71.9680 -71.9637
   -71.9617 -71.9595 -71.9585 -71.9531 -71.9512 -71.9500 -71.9450 -71.9441
   -71.9413 -71.9387 -71.9352 -71.9334 -71.9313 -71.9299 -71.9269 -71.9253
   -71.9246 -71.9217 -71.9181 -71.9165 -71.9146 -71.9125 -71.9095 -71.9078
   -71.9073 -71.8971 -71.8933 -71.8893 -71.8883 -71.8831 -71.8764 -71.8727
   -71.8694 -71.8671 -71.8649 -71.8618 -71.8531 -71.8456 -71.8415 -71.8365
   -71.8310 -71.8212 -71.8114 -71.8077 -71.7253 -71.7141 -71.4940 -71.4857
   -71.4672 -71.4594 -71.4545 -71.4455 -71.4409 -71.4393 -71.4259 -71.4235
   -71.4206 -71.4190 -71.4180 -71.4159 -71.4131 -71.4096 -71.4056 -71.4021
   -71.3969 -71.3946 -71.3893 -71.3789 -71.3773 -71.3748 -71.3727 -71.3689
   -71.3649 -71.3605 -71.3590 -71.3568 -71.3537 -71.3475 -71.3464 -71.3440
   -71.3417 -71.3376 -71.3311 -71.3243 -71.3234 -71.3116 -71.3108 -71.2968
   -12.2745  -6.7627  -5.7925  -5.0537  -4.9300  -4.7796  -4.1345  -4.0382
    -3.5160  -3.4969  -2.7459  -2.7154  -2.6873  -2.6363  -2.6314  -2.5343
    -2.4941  -2.4498  -2.4118  -2.3304  -2.2966  -2.2625  -2.1904  -2.1386
    -2.1183  -2.0775  -2.0653  -2.0540  -1.9650  -1.9239  -1.9162  -1.9075
    -1.8990  -1.8845  -1.8068  -1.7816  -1.7439  -1.7363  -1.7060  -1.6909
    -1.6327  -1.6050  -1.5837  -1.5584  -1.5569  -1.5106  -1.4512  -1.4271
    -1.3871  -1.3549  -1.2840  -1.2582  -1.2528  -1.2223  -1.1922  -1.1521
    -1.1503  -1.1334  -1.1208  -1.1164  -1.1050  -1.0793  -1.0566  -1.0450
    -0.9831  -0.9472  -0.9088  -0.9049  -0.8655  -0.8247  -0.8010  -0.7974
    -0.7645  -0.7586  -0.7449  -0.7427  -0.7277  -0.7083  -0.6428  -0.6390
    -0.6133  -0.6086  -0.5930  -0.5904  -0.5672  -0.5453  -0.5189  -0.5162
    -0.5023  -0.4988  -0.4850  -0.4716  -0.4701  -0.4604  -0.4121  -0.3994
    -0.3818  -0.3367  -0.3049  -0.3026  -0.2650  -0.2395  -0.2127  -0.1986
    -0.1575  -0.1499  -0.1200  -0.0815  -0.0680  -0.0475  -0.0331  -0.0224
    -0.0022  -0.0003   0.0100   0.0323   0.0472   0.1047   0.1111   0.1141
     0.1339   0.1575   0.1632   0.1688   0.1885   0.1956   0.2028   0.2187
     0.2269   0.2439   0.2587   0.2675   0.2716   0.2925   0.3285   0.3461
     0.3607   0.3622   0.4093   0.4158   0.4630   0.4976   0.5138   0.5184
     0.5487   0.5556   0.5770   0.5993   0.6164   0.6182   0.6221   0.6389
     0.7032   0.7085   0.7099   0.7302   0.7665   0.7943   0.8021   0.8192
     0.8287   0.8472   0.8556   0.8662   0.8734   0.8939   0.8979   0.9234
     0.9284   0.9476   0.9869   0.9876   1.0222   1.0243   1.0322   1.0636
     1.0700   1.0732   1.0862   1.0995   1.1102   1.1321   1.1366   1.1458
     1.1670   1.1837   1.1878   1.2241   1.2348   1.2716   1.3001   1.3840
     1.5291   1.5737   1.9082   1.9572   2.0390   2.1341   2.2828   2.3745
     2.4362   2.4584   2.7294   3.0778   3.2813   3.4228   3.5866   3.6916
     3.9322   3.9437   4.1118   4.1762   4.4770   4.5986   4.6316   4.7261
     4.8596   5.0167   5.0768   5.3053   5.5605   5.6059   5.7941   5.8405
     6.0032   6.2646   6.2876   6.3616   6.4198   6.5084   6.5869   6.6555
     6.6764   6.7879   6.8058   7.0185   7.1716   7.1842   7.4093   7.5156
     7.7786   7.9416   8.0685   8.1335   8.2231   8.4483   8.5100   8.6968
     8.8995   8.9162   8.9448   9.0881   9.2135   9.2961   9.3926   9.4239
     9.7080   9.8404   9.8781  10.0148  10.0679  10.0817  10.1987  10.2763
    10.4137  10.6357  10.6842  10.6947  10.7889  10.8655  10.8720  10.9036
    10.9269  11.0365  11.0507  11.0648  11.1124  11.3643  11.3720  11.4516
    11.4896  11.6333  11.6563  11.8730  11.8752  11.9357  12.0235  12.1001
    12.1058  12.2055  12.2097  12.2772  12.3715  12.4661  12.5516  12.6141
    12.6913  12.6959  12.7022  12.7537  12.7718  12.8158  12.8571  12.9129
    12.9698  13.0430  13.1727  13.2499  13.3232  13.4506  13.5304  13.6215
    13.6276  13.6376  13.8590  13.8747  14.1213  14.1494  14.1807  14.2825
    14.4280  14.5016  14.5446  14.6331  14.6483  14.6832  14.6951  14.8284
    14.8307  14.8871  14.8896  14.9807  15.0979  15.1225  15.1276  15.1877
    15.2658  15.2709  15.3595  15.3849  15.4356  15.4992  15.5353  15.5994
    15.6328  15.6489  15.6861  15.8144  15.8295  15.9144  15.9616  16.0014
    16.0589  16.0681  16.1393  16.2295

          k = 0.3333-0.3333 0.0000 ( 47918 PWs)   bands (ev):

  -117.3035-117.3024-117.3003-117.2638-117.2631-117.2554-117.2539-117.2402
  -117.2374-117.2367-117.2335-117.2322-117.2312-117.2306-117.2290-117.2274
  -117.2265-117.2200-117.2180-117.1496-117.1451-117.1378-116.7235-116.7207
  -116.7163-116.7156-116.7073-116.6986-116.6972-116.6967-116.6958-116.6944
  -116.6941-116.6930-116.6913-116.6834 -72.1590 -72.1441 -72.0504 -72.0397
   -72.0304 -72.0226 -72.0151 -72.0105 -72.0050 -71.9952 -71.9934 -71.9890
   -71.9877 -71.9856 -71.9826 -71.9733 -71.9726 -71.9682 -71.9676 -71.9646
   -71.9628 -71.9604 -71.9575 -71.9563 -71.9536 -71.9471 -71.9460 -71.9438
   -71.9432 -71.9400 -71.9360 -71.9348 -71.9335 -71.9312 -71.9302 -71.9299
   -71.9251 -71.9202 -71.9189 -71.9167 -71.9148 -71.9141 -71.9115 -71.9071
   -71.8981 -71.8970 -71.8927 -71.8918 -71.8832 -71.8805 -71.8761 -71.8718
   -71.8666 -71.8631 -71.8619 -71.8583 -71.8579 -71.8545 -71.8484 -71.8371
   -71.8336 -71.8190 -71.8164 -71.7966 -71.7256 -71.7139 -71.4945 -71.4847
   -71.4672 -71.4583 -71.4514 -71.4425 -71.4396 -71.4306 -71.4290 -71.4260
   -71.4219 -71.4206 -71.4175 -71.4148 -71.4121 -71.4112 -71.4058 -71.4010
   -71.3997 -71.3985 -71.3887 -71.3844 -71.3741 -71.3726 -71.3701 -71.3659
   -71.3637 -71.3612 -71.3597 -71.3563 -71.3551 -71.3511 -71.3482 -71.3466
   -71.3402 -71.3371 -71.3336 -71.3275 -71.3254 -71.3152 -71.3114 -71.2889
   -12.2748  -6.7583  -5.8105  -5.0526  -4.9203  -4.7481  -4.1495  -4.1260
    -3.4177  -3.3753  -2.9626  -2.7573  -2.6896  -2.6849  -2.5451  -2.5431
    -2.5151  -2.4368  -2.3943  -2.3299  -2.2978  -2.2417  -2.1197  -2.1097
    -2.0983  -2.0821  -2.0770  -2.0293  -2.0247  -1.9353  -1.9137  -1.9049
    -1.8886  -1.8744  -1.8354  -1.8136  -1.7626  -1.7469  -1.7136  -1.6673
    -1.6340  -1.6215  -1.5842  -1.5640  -1.5512  -1.4948  -1.4333  -1.3946
    -1.3619  -1.3399  -1.2803  -1.2660  -1.2369  -1.2029  -1.1983  -1.1613
    -1.1493  -1.1255  -1.1161  -1.1072  -1.0947  -1.0723  -1.0698  -1.0674
    -1.0138  -0.9067  -0.8978  -0.8748  -0.8620  -0.8541  -0.8231  -0.7991
    -0.7787  -0.7685  -0.7676  -0.7225  -0.7072  -0.6961  -0.6532  -0.6381
    -0.6357  -0.6230  -0.5928  -0.5724  -0.5658  -0.5601  -0.5392  -0.5159
    -0.5064  -0.4998  -0.4723  -0.4657  -0.4637  -0.4455  -0.4420  -0.3846
    -0.3688  -0.3576  -0.3031  -0.2683  -0.2619  -0.2169  -0.2148  -0.2134
    -0.1558  -0.1397  -0.1314  -0.1086  -0.0678  -0.0652  -0.0426  -0.0343
     0.0007   0.0132   0.0315   0.0552   0.0700   0.0792   0.1048   0.1143
     0.1230   0.1315   0.1571   0.1685   0.1809   0.1830   0.2007   0.2144
     0.2339   0.2354   0.2450   0.2944   0.3023   0.3145   0.3276   0.3476
     0.3578   0.3689   0.4156   0.4284   0.4666   0.4778   0.4982   0.5273
     0.5407   0.5660   0.5688   0.5888   0.6198   0.6238   0.6652   0.6774
     0.6833   0.7114   0.7164   0.7228   0.7461   0.7742   0.7829   0.7920
     0.8275   0.8452   0.8551   0.8792   0.8820   0.9035   0.9065   0.9173
     0.9183   0.9328   0.9942   1.0068   1.0130   1.0266   1.0302   1.0370
     1.0594   1.0654   1.0986   1.1060   1.1090   1.1128   1.1237   1.1459
     1.1718   1.1850   1.1920   1.1969   1.2046   1.2163   1.3548   1.5279
     1.5581   1.6482   1.7108   1.9428   1.9742   2.1507   2.2188   2.3692
     2.3727   2.6039   2.8139   2.9414   3.3652   3.5004   3.5627   3.7692
     3.9222   3.9305   3.9923   4.2962   4.3633   4.4890   4.6469   4.7250
     4.8058   5.1679   5.2022   5.2415   5.5775   5.6360   5.7653   5.8997
     6.0447   6.2500   6.2808   6.3699   6.3873   6.4546   6.5280   6.6255
     6.6894   6.7520   6.7853   6.9658   7.1665   7.4060   7.4284   7.4670
     7.7814   8.0374   8.0445   8.0627   8.0933   8.4012   8.5963   8.7482
     8.8825   8.9459   8.9852   9.1077   9.1707   9.2394   9.4283   9.4474
     9.6488   9.7918   9.9350  10.0045  10.0940  10.1167  10.2165  10.2663
    10.3571  10.5711  10.6231  10.6927  10.7967  10.8109  10.8947  10.9224
    10.9345  10.9665  11.0587  11.0900  11.1525  11.3670  11.3798  11.4938
    11.6527  11.6792  11.7316  11.8000  11.8460  11.8889  11.9312  12.0570
    12.0981  12.1315  12.1833  12.3095  12.4279  12.4933  12.5009  12.6207
    12.7015  12.7070  12.7415  12.8094  12.8223  12.8391  12.8545  12.9265
    13.0309  13.0462  13.1253  13.2208  13.2832  13.3557  13.5640  13.5655
    13.6019  13.6070  13.7731  13.9640  14.0696  14.1791  14.2203  14.3269
    14.5197  14.5621  14.5674  14.6188  14.6484  14.7002  14.7724  14.8081
    14.8625  14.8769  14.9423  15.0279  15.0526  15.0722  15.1247  15.1530
    15.1923  15.2740  15.3315  15.3799  15.4565  15.4948  15.5788  15.6017
    15.6280  15.7337  15.7933  15.8095  15.8316  15.8868  15.9265  15.9922
    16.0210  16.0892  16.1430  16.1590

     the Fermi energy is     2.7707 ev
     (compare with:     2.7711 eV, computed in scf)

     Writing all to output data dir ./tmp/cu.save/
 
     init_run     :      0.55s CPU      0.59s WALL (       1 calls)
     electrons    :    416.31s CPU    420.18s WALL (       1 calls)

     Called by init_run:
     wfcinit      :      0.00s CPU      0.00s WALL (       1 calls)
     potinit      :      0.08s CPU      0.09s WALL (       1 calls)
     hinit0       :      0.40s CPU      0.42s WALL (       1 calls)

     Called by electrons:
     c_bands      :    416.31s CPU    420.18s WALL (       1 calls)
     v_of_rho     :      0.06s CPU      0.08s WALL (       1 calls)

     Called by c_bands:
     init_us_2    :      0.09s CPU      0.12s WALL (       5 calls)
     init_us_2:cp :      0.09s CPU      0.12s WALL (       5 calls)
     cegterg      :    402.63s CPU    405.87s WALL (      12 calls)

     Called by *egterg:
     cdiaghg      :     99.83s CPU     99.84s WALL (     203 calls)
     h_psi        :    159.61s CPU    161.98s WALL (     215 calls)
     g_psi        :      0.71s CPU      0.71s WALL (     198 calls)

     Called by h_psi:
     h_psi:calbec :     24.37s CPU     24.48s WALL (     215 calls)
     vloc_psi     :    109.74s CPU    111.51s WALL (     215 calls)
     add_vuspsi   :     24.03s CPU     24.05s WALL (     215 calls)

     General routines
     calbec       :     24.37s CPU     24.48s WALL (     215 calls)
     fft          :      0.07s CPU      0.09s WALL (      11 calls)
     fftw         :     77.45s CPU     78.69s WALL (   88960 calls)
     davcio       :      0.00s CPU      0.32s WALL (      10 calls)
 
     Parallel routines
 
     PWSCF        :   6m57.48s CPU   7m 2.62s WALL

 
   This run was terminated on:  16:18: 2  26Jan2022            

=------------------------------------------------------------------------------=
   JOB DONE.
=------------------------------------------------------------------------------=
