
     Program PWSCF v.7.0 starts on 26Jan2022 at 15:52:18 

     This program is part of the open-source Quantum ESPRESSO suite
     for quantum simulation of materials; please cite
         "P. Giannozzi et al., J. Phys.:Condens. Matter 21 395502 (2009);
         "P. Giannozzi et al., J. Phys.:Condens. Matter 29 465901 (2017);
         "P. Giannozzi et al., J. Chem. Phys. 152 154105 (2020);
          URL http://www.quantum-espresso.org", 
     in publications or presentations arising from this work. More details at
     http://www.quantum-espresso.org/quote

     Parallel version (MPI), running on     6 processors

     MPI processes distributed on     1 nodes
     R & G space division:  proc/nbgrp/npool/nimage =       6
     84458 MiB available memory on the printing compute node when the environment starts
 
     Waiting for input...
     Reading input from standard input

     Current dimensions of program PWSCF are:
     Max number of different atomic species (ntypx) = 10
     Max number of k-points (npk) =  40000
     Max angular momentum in pseudopotentials (lmaxx) =  4

     Subspace diagonalization in iterative solution of the eigenvalue problem:
     a serial algorithm will be used

 
     Parallelization info
     --------------------
     sticks:   dense  smooth     PW     G-vecs:    dense   smooth      PW
     Min         534     534    142                63842    63842    8716
     Max         535     535    143                63851    63851    8721
     Sum        3209    3209    853               383067   383067   52303
 
     Using Slab Decomposition
 


     bravais-lattice index     =            6
     lattice parameter (alat)  =      14.2189  a.u.
     unit-cell volume          =    8023.2585 (a.u.)^3
     number of atoms/cell      =           40
     number of atomic types    =            3
     number of electrons       =       694.00
     number of Kohn-Sham states=          416
     kinetic-energy cutoff     =      50.0000  Ry
     charge density cutoff     =     200.0000  Ry
     scf convergence threshold =      1.0E-06
     mixing beta               =       0.7000
     number of iterations used =            8  plain     mixing
     Exchange-correlation= PBE
                           (   1   4   3   4   0   0   0)

     celldm(1)=  14.218910  celldm(2)=   0.000000  celldm(3)=   2.790949
     celldm(4)=   0.000000  celldm(5)=   0.000000  celldm(6)=   0.000000

     crystal axes: (cart. coord. in units of alat)
               a(1) = (   1.000000   0.000000   0.000000 )  
               a(2) = (   0.000000   1.000000   0.000000 )  
               a(3) = (   0.000000   0.000000   2.790949 )  

     reciprocal axes: (cart. coord. in units 2 pi/alat)
               b(1) = (  1.000000  0.000000  0.000000 )  
               b(2) = (  0.000000  1.000000  0.000000 )  
               b(3) = (  0.000000  0.000000  0.358301 )  


     PseudoPot. # 1 for Cu read from file:
     /home/chris/Work/QE/PP/ONCV_TM/ONCVPSP-master/abinit/Cu_ONCV_PBE_sr.upf
     MD5 check sum: a81617321994e202ce49920f32934a3a
     Pseudo is Norm-conserving + core correction, Zval = 19.0
     Generated using ONCVPSP code by D. R. Hamann
     Using radial grid of 1492 points,  6 beta functions with: 
                l(1) =   0
                l(2) =   0
                l(3) =   1
                l(4) =   1
                l(5) =   2
                l(6) =   2

     PseudoPot. # 2 for C  read from file:
     /home/chris/Work/QE/PP/ONCV_TM/ONCVPSP-master/abinit/C_ONCV_PBE_sr.upf
     MD5 check sum: be7deea5c8a9eeec940f0cd39a542f08
     Pseudo is Norm-conserving + core correction, Zval =  4.0
     Generated using ONCVPSP code by D. R. Hamann
     Using radial grid of 1248 points,  4 beta functions with: 
                l(1) =   0
                l(2) =   0
                l(3) =   1
                l(4) =   1

     PseudoPot. # 3 for H  read from file:
     /home/chris/Work/QE/PP/ONCV_TM/ONCVPSP-master/abinit/H_ONCV_PBE_sr.upf
     MD5 check sum: 31ee981bebb029a36324f200b357dac4
     Pseudo is Norm-conserving, Zval =  1.0
     Generated using ONCVPSP code by D. R. Hamann
     Using radial grid of 1166 points,  3 beta functions with: 
                l(1) =   0
                l(2) =   0
                l(3) =   1

     atomic species   valence    mass     pseudopotential
        Cu            19.00    63.54600     Cu( 1.00)
        C              4.00    12.00100     C ( 1.00)
        H              1.00     1.00000     H ( 1.00)

     No symmetry found



   Cartesian axes

     site n.     atom                  positions (alat units)
         1           Cu  tau(   1) = (   0.1666667   0.1666667   0.2358364  )
         2           Cu  tau(   2) = (   0.1666667   0.5000000   0.2358364  )
         3           Cu  tau(   3) = (   0.1666667   0.8333333   0.2358364  )
         4           Cu  tau(   4) = (   0.5000000   0.1666667   0.2358364  )
         5           Cu  tau(   5) = (   0.5000000   0.5000000   0.2358364  )
         6           Cu  tau(   6) = (   0.5000000   0.8333333   0.2358364  )
         7           Cu  tau(   7) = (   0.8333333   0.1666667   0.2358364  )
         8           Cu  tau(   8) = (   0.8333333   0.5000000   0.2358364  )
         9           Cu  tau(   9) = (   0.8333333   0.8333333   0.2358364  )
        10           Cu  tau(  10) = (   0.0000000   0.0000000   0.4714242  )
        11           Cu  tau(  11) = (   0.0000000   0.3333333   0.4714242  )
        12           Cu  tau(  12) = (   0.0000000   0.6666667   0.4714242  )
        13           Cu  tau(  13) = (   0.3333333   0.0000000   0.4714242  )
        14           Cu  tau(  14) = (   0.3333333   0.3333333   0.4714242  )
        15           Cu  tau(  15) = (   0.3333333   0.6666667   0.4714242  )
        16           Cu  tau(  16) = (   0.6666667   0.0000000   0.4714242  )
        17           Cu  tau(  17) = (   0.6666667   0.3333333   0.4714242  )
        18           Cu  tau(  18) = (   0.6666667   0.6666667   0.4714242  )
        19           Cu  tau(  19) = (   0.1617832   0.1623621   0.7110663  )
        20           Cu  tau(  20) = (   0.1680372   0.4964522   0.7139677  )
        21           Cu  tau(  21) = (   0.1734572   0.8271004   0.7159227  )
        22           Cu  tau(  22) = (   0.4959858   0.1686228   0.7144710  )
        23           Cu  tau(  23) = (   0.4996094   0.4999904   0.7067716  )
        24           Cu  tau(  24) = (   0.5039623   0.8314891   0.7142632  )
        25           Cu  tau(  25) = (   0.8264561   0.1728860   0.7157696  )
        26           Cu  tau(  26) = (   0.8310530   0.5035398   0.7139759  )
        27           Cu  tau(  27) = (   0.8380877   0.8376464   0.7112863  )
        28           Cu  tau(  28) = (   0.0003740   0.0002631   0.9509683  )
        29           Cu  tau(  29) = (   0.9846285   0.3336580   0.9488453  )
        30           Cu  tau(  30) = (   0.0137070   0.6665637   0.9486443  )
        31           Cu  tau(  31) = (   0.3338146   0.9870380   0.9487477  )
        32           Cu  tau(  32) = (   0.3143598   0.3168106   0.9539751  )
        33           Cu  tau(  33) = (   0.3481639   0.6523333   0.9691671  )
        34           Cu  tau(  34) = (   0.6668776   0.0130186   0.9488247  )
        35           Cu  tau(  35) = (   0.6500105   0.3475991   0.9697067  )
        36           Cu  tau(  36) = (   0.6840335   0.6829854   0.9537302  )
        37           C   tau(  37) = (   0.4341726   0.4362844   1.1515639  )
        38           C   tau(  38) = (   0.5635774   0.5642651   1.1514900  )
        39           H   tau(  39) = (   0.3810800   0.3840574   1.2774165  )
        40           H   tau(  40) = (   0.6163217   0.6172566   1.2771874  )

     number of k points=     5  Gaussian smearing, width (Ry)=  0.0050
                       cart. coord. in units 2pi/alat
        k(    1) = (   0.0000000   0.0000000   0.0000000), wk =   0.2222222
        k(    2) = (   0.0000000   0.3333333   0.0000000), wk =   0.4444444
        k(    3) = (   0.3333333   0.0000000   0.0000000), wk =   0.4444444
        k(    4) = (   0.3333333   0.3333333   0.0000000), wk =   0.4444444
        k(    5) = (   0.3333333  -0.3333333   0.0000000), wk =   0.4444444

     Dense  grid:   383067 G-vectors     FFT dimensions: (  72,  72, 180)

     Estimated max dynamical RAM per process >     669.33 MB

     Estimated total dynamical RAM >       3.92 GB

     Check: negative core charge=   -0.001277

     Initial potential from superposition of free atoms

     starting charge     693.9884, renormalised to     694.0000

     negative rho (up, down):  1.285E-01 0.000E+00
     Starting wfcs are  370 randomized atomic wfcs +   46 random wfcs

     total cpu time spent up to now is       11.3 secs

     Self-consistent Calculation

     iteration #  1     ecut=    50.00 Ry     beta= 0.70
     Davidson diagonalization with overlap
     ethr =  1.00E-02,  avg # of iterations =  6.8

     total cpu time spent up to now is       68.2 secs

     total energy              =  -13724.28693992 Ry
     estimated scf accuracy    <     167.38042770 Ry

     iteration #  2     ecut=    50.00 Ry     beta= 0.70
     Davidson diagonalization with overlap
     ethr =  1.00E-02,  avg # of iterations =  4.8

     total cpu time spent up to now is      127.8 secs

     total energy              =  -13735.47967281 Ry
     estimated scf accuracy    <     777.78349489 Ry

     iteration #  3     ecut=    50.00 Ry     beta= 0.70
     Davidson diagonalization with overlap
     ethr =  1.00E-02,  avg # of iterations =  8.4

     total cpu time spent up to now is      200.6 secs

     total energy              =  -13627.57691952 Ry
     estimated scf accuracy    <    5402.54918902 Ry

     iteration #  4     ecut=    50.00 Ry     beta= 0.70
     Davidson diagonalization with overlap
     ethr =  1.00E-02,  avg # of iterations =  5.0

     total cpu time spent up to now is      254.3 secs

     total energy              =  -13796.28827202 Ry
     estimated scf accuracy    <     642.61623813 Ry

     iteration #  5     ecut=    50.00 Ry     beta= 0.70
     Davidson diagonalization with overlap
     ethr =  1.00E-02,  avg # of iterations =  2.6

     total cpu time spent up to now is      294.7 secs

     total energy              =  -13844.97862877 Ry
     estimated scf accuracy    <     166.95617419 Ry

     iteration #  6     ecut=    50.00 Ry     beta= 0.70
     Davidson diagonalization with overlap
     ethr =  1.00E-02,  avg # of iterations =  2.0

     total cpu time spent up to now is      328.3 secs

     total energy              =  -13852.52903130 Ry
     estimated scf accuracy    <      57.86674960 Ry

     iteration #  7     ecut=    50.00 Ry     beta= 0.70
     Davidson diagonalization with overlap
     ethr =  8.34E-03,  avg # of iterations =  2.0

     total cpu time spent up to now is      362.1 secs

     total energy              =  -13849.46622678 Ry
     estimated scf accuracy    <      28.46868371 Ry

     iteration #  8     ecut=    50.00 Ry     beta= 0.70
     Davidson diagonalization with overlap
     ethr =  4.10E-03,  avg # of iterations =  1.4

     total cpu time spent up to now is      393.3 secs

     total energy              =  -13845.15559932 Ry
     estimated scf accuracy    <      17.76923945 Ry

     iteration #  9     ecut=    50.00 Ry     beta= 0.70
     Davidson diagonalization with overlap
     ethr =  2.56E-03,  avg # of iterations =  3.0

     total cpu time spent up to now is      428.7 secs

     total energy              =  -13845.08241078 Ry
     estimated scf accuracy    <       4.03719750 Ry

     iteration # 10     ecut=    50.00 Ry     beta= 0.70
     Davidson diagonalization with overlap
     ethr =  5.82E-04,  avg # of iterations =  7.6

     total cpu time spent up to now is      470.0 secs

     total energy              =  -13844.01653313 Ry
     estimated scf accuracy    <       2.34699188 Ry

     iteration # 11     ecut=    50.00 Ry     beta= 0.70
     Davidson diagonalization with overlap
     ethr =  3.38E-04,  avg # of iterations =  7.6

     total cpu time spent up to now is      527.1 secs

     total energy              =  -13844.25875217 Ry
     estimated scf accuracy    <       1.56440221 Ry

     iteration # 12     ecut=    50.00 Ry     beta= 0.70
     Davidson diagonalization with overlap
     ethr =  2.25E-04,  avg # of iterations =  7.0

     total cpu time spent up to now is      570.2 secs

     total energy              =  -13844.48932480 Ry
     estimated scf accuracy    <       0.45278406 Ry

     iteration # 13     ecut=    50.00 Ry     beta= 0.70
     Davidson diagonalization with overlap
     ethr =  6.52E-05,  avg # of iterations =  4.4

     total cpu time spent up to now is      607.7 secs

     total energy              =  -13844.52040383 Ry
     estimated scf accuracy    <       0.16768175 Ry

     iteration # 14     ecut=    50.00 Ry     beta= 0.70
     Davidson diagonalization with overlap
     ethr =  2.42E-05,  avg # of iterations =  6.6

     total cpu time spent up to now is      651.2 secs

     total energy              =  -13844.52221234 Ry
     estimated scf accuracy    <       0.21419222 Ry

     iteration # 15     ecut=    50.00 Ry     beta= 0.70
     Davidson diagonalization with overlap
     ethr =  2.42E-05,  avg # of iterations =  6.2

     total cpu time spent up to now is      691.2 secs

     total energy              =  -13844.52325445 Ry
     estimated scf accuracy    <       0.36876033 Ry

     iteration # 16     ecut=    50.00 Ry     beta= 0.70
     Davidson diagonalization with overlap
     ethr =  2.42E-05,  avg # of iterations =  2.4

     total cpu time spent up to now is      725.6 secs

     total energy              =  -13844.54447948 Ry
     estimated scf accuracy    <       0.02815313 Ry

     iteration # 17     ecut=    50.00 Ry     beta= 0.70
     Davidson diagonalization with overlap
     ethr =  4.06E-06,  avg # of iterations =  2.8

     total cpu time spent up to now is      760.5 secs

     total energy              =  -13844.54715086 Ry
     estimated scf accuracy    <       0.00914748 Ry

     iteration # 18     ecut=    50.00 Ry     beta= 0.70
     Davidson diagonalization with overlap
     c_bands:  1 eigenvalues not converged
     c_bands:  1 eigenvalues not converged
     ethr =  1.32E-06,  avg # of iterations = 12.6

     total cpu time spent up to now is      806.2 secs

     total energy              =  -13844.54807306 Ry
     estimated scf accuracy    <       0.00111873 Ry

     iteration # 19     ecut=    50.00 Ry     beta= 0.70
     Davidson diagonalization with overlap
     ethr =  1.61E-07,  avg # of iterations =  2.2

     total cpu time spent up to now is      840.8 secs

     total energy              =  -13844.54817916 Ry
     estimated scf accuracy    <       0.00039935 Ry

     iteration # 20     ecut=    50.00 Ry     beta= 0.70
     Davidson diagonalization with overlap
     ethr =  5.75E-08,  avg # of iterations =  2.0

     total cpu time spent up to now is      874.5 secs

     total energy              =  -13844.54821034 Ry
     estimated scf accuracy    <       0.00007585 Ry

     iteration # 21     ecut=    50.00 Ry     beta= 0.70
     Davidson diagonalization with overlap
     ethr =  1.09E-08,  avg # of iterations =  2.0

     total cpu time spent up to now is      913.6 secs

     total energy              =  -13844.54820885 Ry
     estimated scf accuracy    <       0.00023904 Ry

     iteration # 22     ecut=    50.00 Ry     beta= 0.70
     Davidson diagonalization with overlap
     ethr =  1.09E-08,  avg # of iterations =  2.0

     total cpu time spent up to now is      951.4 secs

     total energy              =  -13844.54823487 Ry
     estimated scf accuracy    <       0.00000765 Ry

     iteration # 23     ecut=    50.00 Ry     beta= 0.70
     Davidson diagonalization with overlap
     ethr =  1.10E-09,  avg # of iterations =  2.0

     total cpu time spent up to now is      988.0 secs

     total energy              =  -13844.54823624 Ry
     estimated scf accuracy    <       0.00000128 Ry

     iteration # 24     ecut=    50.00 Ry     beta= 0.70
     Davidson diagonalization with overlap
     ethr =  1.84E-10,  avg # of iterations =  2.0

     total cpu time spent up to now is     1025.1 secs

     total energy              =  -13844.54823633 Ry
     estimated scf accuracy    <       0.00000121 Ry

     iteration # 25     ecut=    50.00 Ry     beta= 0.70
     Davidson diagonalization with overlap
     ethr =  1.75E-10,  avg # of iterations =  2.0

     total cpu time spent up to now is     1058.3 secs

     total energy              =  -13844.54823633 Ry
     estimated scf accuracy    <       0.00000218 Ry

     iteration # 26     ecut=    50.00 Ry     beta= 0.70
     Davidson diagonalization with overlap
     ethr =  1.75E-10,  avg # of iterations =  1.4

     total cpu time spent up to now is     1089.4 secs

     total energy              =  -13844.54823644 Ry
     estimated scf accuracy    <       0.00000104 Ry

     iteration # 27     ecut=    50.00 Ry     beta= 0.70
     Davidson diagonalization with overlap
     ethr =  1.50E-10,  avg # of iterations =  1.2

     total cpu time spent up to now is     1119.9 secs

     End of self-consistent calculation

          k = 0.0000 0.0000 0.0000 ( 47805 PWs)   bands (ev):

  -117.3046-117.3037-117.2979-117.2601-117.2592-117.2536-117.2522-117.2369
  -117.2355-117.2345-117.2300-117.2292-117.2290-117.2280-117.2272-117.2264
  -117.2259-117.2159-117.2156-117.1488-117.1445-117.1410-116.7215-116.7201
  -116.7150-116.7129-116.7070-116.6976-116.6958-116.6953-116.6939-116.6935
  -116.6923-116.6917-116.6913-116.6792 -72.1457 -72.1417 -72.0251 -72.0166
   -72.0097 -72.0087 -72.0012 -71.9944 -71.9931 -71.9863 -71.9829 -71.9760
   -71.9719 -71.9693 -71.9678 -71.9669 -71.9599 -71.9590 -71.9576 -71.9556
   -71.9549 -71.9510 -71.9470 -71.9460 -71.9425 -71.9391 -71.9386 -71.9381
   -71.9373 -71.9291 -71.9277 -71.9260 -71.9200 -71.9186 -71.9161 -71.9120
   -71.9106 -71.9096 -71.9077 -71.9071 -71.9027 -71.8976 -71.8949 -71.8938
   -71.8855 -71.8842 -71.8815 -71.8746 -71.8729 -71.8698 -71.8612 -71.8570
   -71.8555 -71.8467 -71.8351 -71.8339 -71.8245 -71.8229 -71.8158 -71.8115
   -71.8084 -71.8035 -71.8027 -71.7870 -71.7200 -71.7011 -71.4528 -71.4512
   -71.4476 -71.4429 -71.4344 -71.4335 -71.4307 -71.4281 -71.4273 -71.4191
   -71.4053 -71.3962 -71.3959 -71.3909 -71.3886 -71.3871 -71.3833 -71.3815
   -71.3772 -71.3759 -71.3728 -71.3722 -71.3681 -71.3653 -71.3631 -71.3594
   -71.3574 -71.3505 -71.3469 -71.3459 -71.3419 -71.3374 -71.3311 -71.3306
   -71.3290 -71.3288 -71.3218 -71.3212 -71.3205 -71.3075 -71.3073 -71.2667
   -12.2777  -6.7497  -6.4020  -4.9954  -4.5328  -3.9652  -3.9574  -3.9327
    -3.9259  -3.0841  -3.0599  -2.9589  -2.9300  -2.8681  -2.6234  -2.5118
    -2.5000  -2.4848  -2.4203  -2.4070  -2.2841  -2.1766  -2.1609  -2.0457
    -1.9981  -1.9865  -1.9833  -1.9530  -1.9492  -1.9150  -1.8848  -1.8831
    -1.8733  -1.8713  -1.8580  -1.8170  -1.7773  -1.7700  -1.7614  -1.7251
    -1.7159  -1.6962  -1.6836  -1.6790  -1.6664  -1.5160  -1.5006  -1.3814
    -1.2704  -1.2612  -1.2347  -1.2310  -1.2140  -1.1851  -1.1611  -1.1504
    -1.1488  -1.0996  -1.0812  -1.0780  -1.0454  -0.9661  -0.9486  -0.9398
    -0.9389  -0.9145  -0.8873  -0.8710  -0.8641  -0.8606  -0.8519  -0.8157
    -0.8103  -0.7266  -0.6889  -0.6861  -0.6315  -0.5905  -0.5691  -0.5547
    -0.5387  -0.5354  -0.5322  -0.5176  -0.5166  -0.5064  -0.4888  -0.4773
    -0.4459  -0.4396  -0.4330  -0.4215  -0.4125  -0.4098  -0.3849  -0.3823
    -0.3759  -0.3571  -0.3362  -0.3218  -0.3159  -0.3095  -0.3030  -0.2684
    -0.0923  -0.0476   0.0139   0.0648   0.0742   0.0990   0.1028   0.1186
     0.1315   0.1364   0.1504   0.1865   0.1963   0.2106   0.2123   0.2427
     0.2559   0.2686   0.3029   0.3108   0.3135   0.3434   0.3605   0.3752
     0.4013   0.4096   0.4344   0.4361   0.4538   0.4604   0.5194   0.5336
     0.5521   0.5549   0.5614   0.5637   0.5808   0.6028   0.6329   0.6427
     0.6454   0.6570   0.6657   0.6667   0.6780   0.6924   0.6976   0.7190
     0.7258   0.7573   0.7667   0.7850   0.7899   0.8116   0.8207   0.8285
     0.8298   0.8376   0.8473   0.8546   0.8673   0.8715   0.8791   0.8949
     0.9082   0.9089   0.9139   0.9212   0.9735   0.9744   0.9878   1.0003
     1.0068   1.0345   1.0361   1.0657   1.0666   1.0876   1.1111   1.1420
     1.1450   1.1575   1.1711   1.1931   1.2025   1.2301   1.2388   1.2547
     1.2598   1.2635   1.3007   1.3248   1.3897   1.4893   1.6315   1.6668
     2.0365   2.1712   2.2607   2.5659   2.6635   2.8433   2.9844   3.2191
     3.3942   3.8713   4.0189   4.6561   4.6652   4.9397   4.9729   5.0290
     5.1220   5.1806   5.5296   5.9149   6.0125   6.2467   6.7441   6.7738
     6.8394   6.8518   6.9713   6.9907   7.0104   7.0384   7.0641   7.4372
     7.4995   7.5130   7.5278   7.5667   7.7375   7.7444   7.7989   7.8351
     7.9071   7.9227   7.9463   7.9720   8.0733   8.3679   8.3755   8.6575
     8.6722   8.9002   8.9558   9.0667   9.1992   9.3282   9.4195   9.4348
     9.4625   9.5313   9.6145   9.6510   9.8696   9.9052   9.9404   9.9879
    10.0333  10.1259  10.1295  10.1491  10.1723  10.2576  10.2646  10.3109

          k = 0.0000 0.3333 0.0000 ( 47890 PWs)   bands (ev):

  -117.3053-117.3042-117.2985-117.2607-117.2596-117.2540-117.2530-117.2373
  -117.2366-117.2329-117.2309-117.2301-117.2296-117.2286-117.2278-117.2275
  -117.2271-117.2169-117.2161-117.1493-117.1452-117.1416-116.7224-116.7201
  -116.7149-116.7144-116.7073-116.6975-116.6962-116.6957-116.6952-116.6938
  -116.6931-116.6926-116.6921-116.6800 -72.1559 -72.1483 -72.0625 -72.0328
   -72.0239 -72.0123 -72.0105 -72.0016 -72.0001 -71.9919 -71.9905 -71.9877
   -71.9855 -71.9824 -71.9771 -71.9758 -71.9744 -71.9708 -71.9696 -71.9654
   -71.9625 -71.9608 -71.9585 -71.9565 -71.9550 -71.9511 -71.9478 -71.9443
   -71.9431 -71.9400 -71.9369 -71.9340 -71.9326 -71.9299 -71.9272 -71.9262
   -71.9250 -71.9198 -71.9160 -71.9126 -71.9092 -71.9082 -71.9038 -71.9003
   -71.8987 -71.8905 -71.8883 -71.8840 -71.8825 -71.8799 -71.8704 -71.8653
   -71.8629 -71.8519 -71.8505 -71.8429 -71.8384 -71.8306 -71.8277 -71.8231
   -71.8174 -71.8131 -71.8068 -71.8031 -71.7283 -71.7127 -71.4881 -71.4751
   -71.4602 -71.4524 -71.4473 -71.4433 -71.4366 -71.4344 -71.4246 -71.4204
   -71.4178 -71.4146 -71.4135 -71.4111 -71.4054 -71.4016 -71.3993 -71.3961
   -71.3910 -71.3881 -71.3823 -71.3816 -71.3784 -71.3731 -71.3689 -71.3661
   -71.3639 -71.3609 -71.3560 -71.3532 -71.3493 -71.3458 -71.3410 -71.3399
   -71.3369 -71.3337 -71.3296 -71.3276 -71.3274 -71.3199 -71.3092 -71.2901
   -12.2775  -6.7592  -6.0963  -5.2485  -4.8853  -4.3356  -3.7157  -3.7108
    -3.6621  -3.1168  -3.0421  -2.9303  -2.8830  -2.7779  -2.7138  -2.6824
    -2.5114  -2.4511  -2.3897  -2.3739  -2.2654  -2.2156  -2.1978  -2.1765
    -2.1499  -2.1414  -2.1186  -2.0627  -2.0322  -2.0096  -1.9908  -1.9869
    -1.9532  -1.8472  -1.7980  -1.7373  -1.7094  -1.7034  -1.6939  -1.6788
    -1.6401  -1.6051  -1.5700  -1.5559  -1.5272  -1.4935  -1.4809  -1.4296
    -1.4052  -1.3754  -1.3267  -1.2827  -1.2422  -1.2305  -1.2168  -1.1917
    -1.1407  -1.1126  -1.0842  -1.0801  -1.0624  -1.0436  -1.0181  -1.0035
    -0.9979  -0.9914  -0.9580  -0.9430  -0.9399  -0.8996  -0.8932  -0.8533
    -0.8423  -0.7706  -0.7332  -0.7137  -0.6955  -0.6929  -0.6865  -0.6373
    -0.6026  -0.5804  -0.5578  -0.5494  -0.5105  -0.4969  -0.4944  -0.4896
    -0.4744  -0.4627  -0.4407  -0.4247  -0.4051  -0.3975  -0.3848  -0.3642
    -0.3399  -0.3193  -0.2829  -0.2650  -0.2380  -0.2230  -0.2058  -0.1905
    -0.1756  -0.1457  -0.0830  -0.0373  -0.0303   0.0011   0.0303   0.0407
     0.0580   0.0739   0.0845   0.1241   0.1330   0.1501   0.1550   0.1668
     0.1873   0.2009   0.2158   0.2273   0.2334   0.2452   0.2546   0.2724
     0.2979   0.3224   0.3618   0.3727   0.3962   0.4003   0.4110   0.4313
     0.4596   0.4741   0.4810   0.4931   0.5253   0.5815   0.5889   0.6082
     0.6273   0.6474   0.6588   0.6845   0.6911   0.7115   0.7200   0.7464
     0.7507   0.7748   0.7789   0.7892   0.8009   0.8077   0.8211   0.8271
     0.8458   0.8598   0.8682   0.8718   0.8790   0.8980   0.8994   0.9096
     0.9200   0.9296   0.9430   0.9441   0.9555   0.9577   0.9757   0.9773
     0.9920   1.0095   1.0242   1.0774   1.1006   1.1367   1.1491   1.1536
     1.1757   1.1937   1.2051   1.2215   1.2295   1.2475   1.2502   1.2774
     1.2822   1.3059   1.3464   1.5156   1.6857   1.8366   1.8549   1.9638
     2.2444   2.5660   2.6568   2.9311   2.9644   3.1084   3.3060   3.5659
     3.6534   3.7184   4.0459   4.1287   4.5995   4.8124   4.9704   5.0214
     5.2872   5.4262   5.4817   5.5549   5.7052   5.8065   5.9658   6.1054
     6.2206   6.3372   6.4443   6.6969   6.8491   6.9699   7.0911   7.1719
     7.1876   7.3069   7.3871   7.4224   7.6115   7.7463   7.7763   7.8300
     7.9110   7.9624   7.9916   8.0696   8.1324   8.2166   8.2924   8.3310
     8.5879   8.6752   8.8109   8.8743   8.9122   9.0011   9.0439   9.1143
     9.1983   9.4359   9.5684   9.6329   9.6953   9.7307   9.8067   9.8941
    10.0544  10.1165  10.2657  10.3285  10.3972  10.4565  10.4891  10.5442

          k = 0.3333 0.0000 0.0000 ( 47890 PWs)   bands (ev):

  -117.3052-117.3042-117.2985-117.2607-117.2596-117.2539-117.2530-117.2373
  -117.2366-117.2329-117.2310-117.2301-117.2295-117.2286-117.2280-117.2275
  -117.2270-117.2169-117.2161-117.1493-117.1453-117.1416-116.7224-116.7201
  -116.7149-116.7144-116.7073-116.6972-116.6967-116.6956-116.6950-116.6941
  -116.6931-116.6925-116.6922-116.6800 -72.1555 -72.1492 -72.0624 -72.0337
   -72.0238 -72.0127 -72.0106 -72.0019 -72.0000 -71.9915 -71.9899 -71.9873
   -71.9857 -71.9828 -71.9786 -71.9753 -71.9733 -71.9711 -71.9698 -71.9654
   -71.9628 -71.9614 -71.9588 -71.9573 -71.9548 -71.9507 -71.9476 -71.9445
   -71.9434 -71.9391 -71.9370 -71.9337 -71.9317 -71.9297 -71.9276 -71.9254
   -71.9249 -71.9210 -71.9155 -71.9123 -71.9093 -71.9080 -71.9035 -71.9015
   -71.8990 -71.8914 -71.8886 -71.8857 -71.8823 -71.8807 -71.8700 -71.8654
   -71.8636 -71.8510 -71.8488 -71.8432 -71.8380 -71.8309 -71.8272 -71.8235
   -71.8168 -71.8142 -71.8057 -71.8027 -71.7278 -71.7128 -71.4884 -71.4750
   -71.4602 -71.4528 -71.4475 -71.4437 -71.4373 -71.4347 -71.4242 -71.4210
   -71.4178 -71.4154 -71.4133 -71.4106 -71.4052 -71.4033 -71.3997 -71.3944
   -71.3911 -71.3877 -71.3833 -71.3801 -71.3779 -71.3727 -71.3689 -71.3663
   -71.3634 -71.3603 -71.3558 -71.3536 -71.3493 -71.3459 -71.3412 -71.3396
   -71.3370 -71.3339 -71.3295 -71.3275 -71.3272 -71.3193 -71.3080 -71.2901
   -12.2775  -6.7596  -6.0961  -5.2485  -4.8850  -4.3352  -3.7146  -3.7096
    -3.6627  -3.1161  -3.0420  -2.9318  -2.8827  -2.7785  -2.7136  -2.6812
    -2.5106  -2.4508  -2.3900  -2.3731  -2.2647  -2.2149  -2.1967  -2.1763
    -2.1504  -2.1413  -2.1171  -2.0627  -2.0315  -2.0106  -1.9916  -1.9863
    -1.9536  -1.8483  -1.8000  -1.7347  -1.7088  -1.7040  -1.6915  -1.6778
    -1.6349  -1.6098  -1.5705  -1.5563  -1.5251  -1.4926  -1.4832  -1.4323
    -1.4069  -1.3714  -1.3276  -1.2838  -1.2488  -1.2314  -1.2168  -1.1922
    -1.1357  -1.1131  -1.0829  -1.0803  -1.0613  -1.0428  -1.0191  -1.0038
    -0.9976  -0.9919  -0.9569  -0.9443  -0.9399  -0.8977  -0.8894  -0.8524
    -0.8386  -0.7683  -0.7323  -0.7100  -0.6989  -0.6970  -0.6837  -0.6424
    -0.6016  -0.5833  -0.5583  -0.5492  -0.5096  -0.4997  -0.4924  -0.4893
    -0.4747  -0.4666  -0.4422  -0.4260  -0.4075  -0.3982  -0.3878  -0.3655
    -0.3430  -0.3207  -0.2835  -0.2686  -0.2366  -0.2224  -0.2048  -0.1943
    -0.1774  -0.1466  -0.0817  -0.0390  -0.0304   0.0003   0.0325   0.0401
     0.0575   0.0738   0.0862   0.1156   0.1339   0.1504   0.1548   0.1661
     0.1860   0.2010   0.2155   0.2254   0.2311   0.2468   0.2548   0.2735
     0.3022   0.3202   0.3639   0.3724   0.3999   0.4012   0.4131   0.4339
     0.4610   0.4743   0.4821   0.4948   0.5241   0.5821   0.5864   0.6080
     0.6262   0.6473   0.6604   0.6819   0.6910   0.7089   0.7204   0.7467
     0.7493   0.7740   0.7786   0.7888   0.8014   0.8090   0.8210   0.8264
     0.8452   0.8601   0.8683   0.8716   0.8786   0.8982   0.8995   0.9104
     0.9206   0.9303   0.9432   0.9450   0.9553   0.9586   0.9758   0.9785
     0.9916   1.0094   1.0273   1.0798   1.1028   1.1389   1.1498   1.1554
     1.1746   1.1964   1.2053   1.2229   1.2293   1.2475   1.2498   1.2772
     1.2815   1.3066   1.3482   1.5182   1.6834   1.8349   1.8543   1.9650
     2.2447   2.5646   2.6558   2.9333   2.9622   3.1079   3.3049   3.5672
     3.6537   3.7196   4.0442   4.1252   4.5970   4.8079   4.9746   5.0210
     5.2878   5.4259   5.4818   5.5570   5.7048   5.8068   5.9657   6.1034
     6.2226   6.3378   6.4463   6.6974   6.8495   6.9700   7.0932   7.1744
     7.1870   7.3074   7.3842   7.4241   7.6107   7.7456   7.7759   7.8297
     7.9100   7.9627   7.9925   8.0704   8.1331   8.2174   8.2955   8.3317
     8.5848   8.6758   8.8104   8.8731   8.9126   9.0009   9.0434   9.1160
     9.1981   9.4354   9.5662   9.6328   9.6926   9.7324   9.8058   9.8953
    10.0584  10.1159  10.2633  10.3278  10.3969  10.4566  10.4885  10.5461

          k = 0.3333 0.3333 0.0000 ( 47918 PWs)   bands (ev):

  -117.3054-117.3044-117.2987-117.2611-117.2595-117.2539-117.2533-117.2390
  -117.2359-117.2328-117.2312-117.2304-117.2297-117.2290-117.2281-117.2272
  -117.2268-117.2173-117.2159-117.1494-117.1453-117.1420-116.7228-116.7202
  -116.7152-116.7146-116.7073-116.6977-116.6962-116.6960-116.6953-116.6945
  -116.6935-116.6927-116.6916-116.6800 -72.1535 -72.1477 -72.0430 -72.0324
   -72.0230 -72.0212 -72.0160 -72.0108 -72.0081 -72.0041 -71.9956 -71.9926
   -71.9888 -71.9817 -71.9803 -71.9781 -71.9719 -71.9690 -71.9663 -71.9619
   -71.9598 -71.9584 -71.9573 -71.9520 -71.9499 -71.9484 -71.9435 -71.9427
   -71.9403 -71.9370 -71.9333 -71.9321 -71.9305 -71.9290 -71.9261 -71.9241
   -71.9234 -71.9199 -71.9159 -71.9153 -71.9129 -71.9112 -71.9078 -71.9067
   -71.9057 -71.8962 -71.8928 -71.8878 -71.8869 -71.8829 -71.8747 -71.8725
   -71.8681 -71.8662 -71.8635 -71.8610 -71.8523 -71.8464 -71.8415 -71.8354
   -71.8296 -71.8182 -71.8127 -71.8075 -71.7281 -71.7177 -71.4928 -71.4845
   -71.4660 -71.4584 -71.4550 -71.4445 -71.4398 -71.4393 -71.4256 -71.4231
   -71.4206 -71.4188 -71.4175 -71.4149 -71.4118 -71.4083 -71.4056 -71.4016
   -71.3962 -71.3929 -71.3894 -71.3789 -71.3771 -71.3752 -71.3722 -71.3680
   -71.3636 -71.3594 -71.3578 -71.3554 -71.3527 -71.3462 -71.3448 -71.3427
   -71.3404 -71.3360 -71.3302 -71.3245 -71.3239 -71.3109 -71.3093 -71.2965
   -12.2770  -6.7650  -5.7912  -5.0537  -4.9286  -4.7800  -4.1334  -4.0374
    -3.5157  -3.4965  -2.7454  -2.7145  -2.6860  -2.6355  -2.6315  -2.5324
    -2.4930  -2.4487  -2.4112  -2.3286  -2.2954  -2.2610  -2.1901  -2.1374
    -2.1175  -2.0759  -2.0637  -2.0526  -1.9641  -1.9231  -1.9144  -1.9060
    -1.8974  -1.8833  -1.8060  -1.7806  -1.7431  -1.7352  -1.7062  -1.6900
    -1.6312  -1.6040  -1.5824  -1.5573  -1.5558  -1.5104  -1.4506  -1.4270
    -1.3863  -1.3532  -1.2834  -1.2569  -1.2518  -1.2221  -1.1916  -1.1513
    -1.1493  -1.1324  -1.1198  -1.1154  -1.1037  -1.0783  -1.0559  -1.0442
    -0.9821  -0.9475  -0.9080  -0.9039  -0.8646  -0.8240  -0.8004  -0.7964
    -0.7638  -0.7579  -0.7441  -0.7417  -0.7267  -0.7077  -0.6417  -0.6381
    -0.6126  -0.6074  -0.5920  -0.5894  -0.5659  -0.5441  -0.5177  -0.5150
    -0.5011  -0.4977  -0.4838  -0.4705  -0.4692  -0.4595  -0.4116  -0.3985
    -0.3810  -0.3359  -0.3046  -0.3019  -0.2645  -0.2384  -0.2122  -0.1976
    -0.1569  -0.1496  -0.1195  -0.0813  -0.0677  -0.0466  -0.0319  -0.0221
    -0.0016   0.0003   0.0099   0.0329   0.0478   0.1054   0.1117   0.1147
     0.1348   0.1582   0.1643   0.1689   0.1896   0.1965   0.2035   0.2196
     0.2273   0.2449   0.2594   0.2684   0.2723   0.2932   0.3287   0.3470
     0.3615   0.3632   0.4100   0.4167   0.4638   0.4987   0.5144   0.5191
     0.5491   0.5566   0.5777   0.5996   0.6172   0.6189   0.6236   0.6394
     0.7040   0.7098   0.7109   0.7311   0.7675   0.7948   0.8028   0.8197
     0.8298   0.8481   0.8569   0.8670   0.8743   0.8947   0.8986   0.9242
     0.9298   0.9479   0.9875   0.9886   1.0233   1.0254   1.0344   1.0648
     1.0709   1.0739   1.0876   1.1006   1.1109   1.1329   1.1378   1.1472
     1.1680   1.1849   1.1891   1.2252   1.2357   1.2725   1.3003   1.3831
     1.5307   1.5742   1.9087   1.9581   2.0394   2.1349   2.2835   2.3752
     2.4372   2.4594   2.7299   3.0780   3.2814   3.4232   3.5873   3.6920
     3.9339   3.9453   4.1118   4.1764   4.4775   4.5996   4.6324   4.7271
     4.8594   5.0175   5.0776   5.3049   5.5602   5.6062   5.7938   5.8415
     6.0026   6.2648   6.2881   6.3611   6.4194   6.5082   6.5866   6.6556
     6.6765   6.7884   6.8063   7.0185   7.1714   7.1843   7.4096   7.5154
     7.7785   7.9420   8.0683   8.1332   8.2232   8.4486   8.5103   8.6972
     8.8992   8.9162   8.9449   9.0884   9.2135   9.2963   9.3923   9.4241
     9.7082   9.8403   9.8779  10.0142  10.0677  10.0815  10.1982  10.2762
    10.4134  10.6359  10.6851  10.6948  10.7893  10.8655  10.8719  10.9047

          k = 0.3333-0.3333 0.0000 ( 47918 PWs)   bands (ev):

  -117.3055-117.3044-117.2987-117.2605-117.2601-117.2545-117.2528-117.2377
  -117.2356-117.2352-117.2310-117.2301-117.2296-117.2289-117.2284-117.2271
  -117.2265-117.2171-117.2160-117.1494-117.1453-117.1419-116.7228-116.7202
  -116.7151-116.7146-116.7076-116.6973-116.6962-116.6958-116.6953-116.6945
  -116.6939-116.6928-116.6915-116.6800 -72.1606 -72.1458 -72.0486 -72.0383
   -72.0290 -72.0214 -72.0134 -72.0085 -72.0035 -71.9944 -71.9924 -71.9878
   -71.9865 -71.9840 -71.9814 -71.9729 -71.9708 -71.9663 -71.9659 -71.9632
   -71.9618 -71.9595 -71.9557 -71.9551 -71.9521 -71.9462 -71.9448 -71.9431
   -71.9416 -71.9390 -71.9345 -71.9336 -71.9321 -71.9299 -71.9287 -71.9286
   -71.9240 -71.9189 -71.9175 -71.9150 -71.9134 -71.9131 -71.9105 -71.9055
   -71.8960 -71.8958 -71.8915 -71.8901 -71.8815 -71.8792 -71.8746 -71.8710
   -71.8669 -71.8630 -71.8611 -71.8580 -71.8572 -71.8536 -71.8476 -71.8375
   -71.8321 -71.8171 -71.8136 -71.7986 -71.7284 -71.7177 -71.4932 -71.4835
   -71.4660 -71.4571 -71.4513 -71.4412 -71.4388 -71.4307 -71.4291 -71.4258
   -71.4218 -71.4200 -71.4171 -71.4136 -71.4117 -71.4112 -71.4058 -71.3995
   -71.3992 -71.3970 -71.3890 -71.3843 -71.3734 -71.3717 -71.3699 -71.3653
   -71.3625 -71.3600 -71.3590 -71.3547 -71.3535 -71.3499 -71.3472 -71.3462
   -71.3387 -71.3356 -71.3325 -71.3269 -71.3240 -71.3151 -71.3117 -71.2880
   -12.2773  -6.7606  -5.8092  -5.0528  -4.9188  -4.7483  -4.1485  -4.1253
    -3.4168  -3.3750  -2.9627  -2.7578  -2.6882  -2.6838  -2.5439  -2.5416
    -2.5134  -2.4357  -2.3940  -2.3281  -2.2965  -2.2403  -2.1186  -2.1093
    -2.0971  -2.0805  -2.0760  -2.0289  -2.0232  -1.9345  -1.9119  -1.9031
    -1.8872  -1.8731  -1.8346  -1.8125  -1.7619  -1.7459  -1.7125  -1.6665
    -1.6326  -1.6204  -1.5830  -1.5631  -1.5505  -1.4945  -1.4326  -1.3944
    -1.3602  -1.3393  -1.2796  -1.2650  -1.2365  -1.2019  -1.1979  -1.1601
    -1.1479  -1.1241  -1.1152  -1.1061  -1.0935  -1.0717  -1.0687  -1.0664
    -1.0133  -0.9057  -0.8970  -0.8746  -0.8619  -0.8539  -0.8224  -0.7985
    -0.7775  -0.7674  -0.7665  -0.7215  -0.7064  -0.6953  -0.6522  -0.6373
    -0.6348  -0.6218  -0.5920  -0.5718  -0.5646  -0.5590  -0.5382  -0.5145
    -0.5051  -0.4987  -0.4712  -0.4642  -0.4622  -0.4444  -0.4416  -0.3843
    -0.3678  -0.3571  -0.3029  -0.2675  -0.2609  -0.2168  -0.2138  -0.2127
    -0.1553  -0.1401  -0.1315  -0.1078  -0.0665  -0.0638  -0.0426  -0.0334
     0.0017   0.0138   0.0319   0.0554   0.0700   0.0800   0.1054   0.1150
     0.1236   0.1322   0.1579   0.1699   0.1817   0.1842   0.2016   0.2154
     0.2339   0.2357   0.2457   0.2950   0.3040   0.3149   0.3283   0.3482
     0.3588   0.3698   0.4157   0.4290   0.4669   0.4785   0.4987   0.5284
     0.5415   0.5667   0.5694   0.5896   0.6208   0.6254   0.6657   0.6781
     0.6834   0.7128   0.7173   0.7235   0.7466   0.7751   0.7837   0.7929
     0.8285   0.8462   0.8562   0.8799   0.8824   0.9045   0.9078   0.9179
     0.9192   0.9334   0.9948   1.0077   1.0138   1.0278   1.0316   1.0378
     1.0608   1.0668   1.0993   1.1067   1.1102   1.1140   1.1252   1.1468
     1.1730   1.1861   1.1934   1.1978   1.2058   1.2174   1.3543   1.5294
     1.5580   1.6486   1.7113   1.9437   1.9753   2.1514   2.2192   2.3702
     2.3736   2.6046   2.8143   2.9417   3.3657   3.5011   3.5628   3.7698
     3.9236   3.9319   3.9927   4.2965   4.3640   4.4895   4.6478   4.7263
     4.8057   5.1681   5.2029   5.2413   5.5775   5.6358   5.7651   5.9009
     6.0444   6.2500   6.2813   6.3699   6.3874   6.4538   6.5279   6.6254
     6.6890   6.7522   6.7860   6.9658   7.1664   7.4063   7.4283   7.4671
     7.7814   8.0374   8.0444   8.0630   8.0930   8.4013   8.5968   8.7485
     8.8824   8.9459   8.9851   9.1079   9.1707   9.2397   9.4283   9.4472
     9.6486   9.7917   9.9346  10.0046  10.0938  10.1166  10.2166  10.2657
    10.3570  10.5711  10.6233  10.6937  10.7969  10.8113  10.8958  10.9227

     the Fermi energy is     2.7711 ev

!    total energy              =  -13844.54823640 Ry
     estimated scf accuracy    <       0.00000016 Ry
     smearing contrib. (-TS)   =      -0.00106124 Ry
     internal energy E=F+TS    =  -13844.54717516 Ry

     The total energy is F=E-TS. E is the sum of the following terms:
     one-electron contribution =  -92588.39258925 Ry
     hartree contribution      =   46276.74408896 Ry
     xc contribution           =   -1721.01910028 Ry
     ewald contribution        =   34188.12042540 Ry

     convergence has been achieved in  27 iterations

     Writing all to output data dir ./tmp/cu.save/
 
     init_run     :     10.83s CPU     11.23s WALL (       1 calls)
     electrons    :   1089.23s CPU   1108.62s WALL (       1 calls)

     Called by init_run:
     wfcinit      :     10.02s CPU     10.36s WALL (       1 calls)
     potinit      :      0.31s CPU      0.32s WALL (       1 calls)
     hinit0       :      0.42s CPU      0.47s WALL (       1 calls)

     Called by electrons:
     c_bands      :    984.94s CPU   1002.87s WALL (      27 calls)
     sum_band     :    101.72s CPU    103.16s WALL (      27 calls)
     v_of_rho     :      1.83s CPU      1.84s WALL (      28 calls)
     mix_rho      :      0.72s CPU      0.72s WALL (      27 calls)

     Called by c_bands:
     init_us_2    :      5.54s CPU      5.56s WALL (     275 calls)
     init_us_2:cp :      5.54s CPU      5.56s WALL (     275 calls)
     cegterg      :    946.41s CPU    964.20s WALL (     135 calls)

     Called by *egterg:
     cdiaghg      :    154.11s CPU    154.45s WALL (     685 calls)
     h_psi        :    487.25s CPU    496.84s WALL (     690 calls)
     g_psi        :      1.70s CPU      1.71s WALL (     550 calls)

     Called by h_psi:
     h_psi:calbec :     74.95s CPU     75.34s WALL (     690 calls)
     vloc_psi     :    336.03s CPU    341.32s WALL (     690 calls)
     add_vuspsi   :     72.89s CPU     72.95s WALL (     690 calls)

     General routines
     calbec       :     74.94s CPU     75.33s WALL (     690 calls)
     fft          :      0.79s CPU      0.84s WALL (     280 calls)
     ffts         :      0.06s CPU      0.06s WALL (      27 calls)
     fftw         :    295.80s CPU    300.50s WALL (  328504 calls)
 
     Parallel routines
 
     PWSCF        :  18m20.63s CPU  18m41.22s WALL

 
   This run was terminated on:  16:10:59  26Jan2022            

=------------------------------------------------------------------------------=
   JOB DONE.
=------------------------------------------------------------------------------=
